<?xml version="1.0" encoding="UTF-8"?>
<VTKFile type="UnstructuredGrid" version="0.1" byte_order="LittleEndian">
<UnstructuredGrid>
<Piece NumberOfPoints="4390" NumberOfCells="21696">
<PointData>
<DataArray type="Float64" Name="Fiber_x" Format="ascii">
0.04570769365488064
0.18030142842084773
0.03735709207960619
0.20821082264492113
0.16743015033270145
0.27367239366649654
0.3478214093958645
0.5431252340573237
-0.016768295340680223
0.16669078159883158
0.10250669254692615
0.28679583433177047
-0.14619374684313668
-0.14248961927772996
-0.0052672117639360055
0.18819736866117093
-0.19370732236086183
-0.09732334499200708
0.03438956202090973
-0.1523728458726432
0.05287043397338348
-0.13970652497882396
-0.28455910632226833
-0.31250110934496483
-0.036325310652860016
-0.02323986456550109
-0.36490444536052924
-0.2801050945966215
-0.033698817544733584
-0.22452135563361925
-0.056219805319309646
-0.24691709242133472
-0.33186609430952513
-0.3241765711138497
-0.4453024581890376
-0.47473168460454
-0.21034035581206206
-0.20263701368771106
-0.20498225014521423
-0.010493042632324897
-0.18769092018798694
0.00422952431368917
-0.5248816167768404
-0.4558063574510113
-0.4985087814500662
-0.4950757489638673
-0.4080588158453998
-0.4272831330682018
-0.5737391135954163
-0.2936447501731853
-0.6142420173280404
-0.3926978728194009
0.23344519053506452
0.02683203049360041
0.07479607127350314
-0.1204209359185624
0.04439923813230072
-0.1532218517797582
0.09366390307179218
-0.09040342746349611
-0.3923463263321105
-0.3822331789220555
-0.6647317852879993
-0.6061572199698725
-0.6470977443465199
-0.6451571478503002
-0.5747078312317305
-0.5916044312613615
-0.6812731287483498
-0.3671861241093268
-0.7317466008393011
-0.5573689981994012
-0.16170151495016516
-0.17054055184849232
-0.34110562071180844
-0.27337487977131625
-0.7751256566076821
-0.7311893928442158
-0.5639729730746622
-0.5557234061337658
-0.7708116398817292
-0.7697822040165208
-0.721044015261146
-0.7339846788189114
-0.7677876371664888
-0.8189162511587328
-0.44103834731206676
-0.6938410571417761
-0.3363845483385814
-0.26276614254383013
-0.5179067844054989
-0.4449783579647754
-0.858715818699005
-0.8284920115699659
-0.863408481780561
-0.8612745352615823
-0.7125049998671815
-0.7085266776710536
-0.839085164483407
-0.8478604502068732
-0.8194693109408984
-0.8772404534097662
-0.5003108277141822
-0.8171352816644049
-0.9099883846831055
-0.8966667647499872
-0.5157816120638424
-0.32962066434034365
-0.6749734595337012
-0.6018454546766506
-0.9247231808483505
-0.921282276234706
-0.9240446654303385
-0.9290702768323533
-0.8376702655147567
-0.8316186683960597
-0.9504281917268234
-0.9464920128424931
-0.6757625973740958
-0.80533901525929
-0.4252089273805393
-0.7388579431448522
-0.9738954893231347
-0.9746883168886992
-0.9269614691548375
-0.9233440791675664
-0.9869703900942516
-0.9833839246046469
-0.8015107660361881
-0.9034538244216532
-0.4336821458720478
-0.8419596280018569
-0.9824653003386304
-0.9797712080235977
-0.9997235240252823
-0.9999682114741992
-0.8947582586183492
-0.9674596990538041
-0.4954250962595274
-0.9165604401335471
-0.9574237970500143
-0.995137534668664
-0.4994012741640835
-0.9532871002442446
0.8416648678717282
0.8199012346349248
0.8992085086628788
0.8773591581511136
0.5453775109857396
0.49849916382057335
0.9013046377865541
0.8177740017422226
0.9236073622527076
0.909526359984155
0.9344234235313785
0.8963693450787052
0.829898079930257
0.5398405852384875
0.8898359095494348
0.9598813038208865
0.9500977339362909
0.9384092392806769
0.9462107160584237
0.9386784089531717
0.9043957341021273
0.9341965138612611
0.7912333169875804
0.847360918174539
0.5389899407874543
0.9731568177886145
0.986809606467215
0.961178295323938
0.9832062137379833
0.9532447685786404
0.891152734797055
0.8934400070593876
0.8491053617334977
0.8963991160280702
0.7183588576433866
0.7680578665130693
0.5069703894083756
0.9603135247963639
0.9790236467279732
0.99969131475551
0.981838393720172
0.9999786090340645
0.8993356185064953
0.887062695094492
0.8089557805581872
0.8118540676626077
0.7608806473575074
0.8228879178969484
0.6173060922905349
0.5115981326989809
0.6570113864269319
0.8944927479804244
0.9591844487084237
0.9839088991597583
0.49916073225619867
0.4966467432311563
0.9952373547601008
0.98449408375106
0.9535634653147681
0.9554839551815723
0.9190792305197227
0.9244380431591329
0.8021019697770699
0.7863430841939517
0.644552829878294
0.7183308477995977
0.6955688758954494
0.6983575807001943
0.48682729211665665
0.41829954597564994
0.520349122504996
0.8059173002793177
0.9725281737331481
0.47645355401511486
0.9359568858048056
0.9233112625166182
0.8257128849617387
0.8307730439399761
0.673836152554611
0.655620735239934
0.5023106496660549
0.5939443896947805
0.5572750273869188
0.5573695312251675
0.34742995806722105
0.3763050834324223
0.33376905253782263
0.6991685707611148
0.9296670324218842
0.41012610545325057
0.85141999531747
0.8520934531929578
0.7014682532895602
0.7024874618433514
0.5209193103199286
0.5011608181485445
0.34038656208150403
0.4453887053111857
0.396123047214504
0.4012913381423652
0.8471044583682169
0.365826302810637
0.7350865390537071
0.7468874705881811
0.5461970382374578
0.5544013758542925
0.3480179686152728
0.32685654576732265
0.22008362811355411
0.22712982015859193
0.7263294423009623
0.5901586581272514
0.26214739060536385
0.6137326432130147
0.3734799975209753
0.3833470313933413
0.1633923143674807
0.13797706891502787
0.574406660827841
0.42364929449231414
0.26865660477037046
0.46728949101024947
0.187601313785834
0.1983022857373723
0.4166286967289384
0.2358779421183266
0.10356027767015707
0.2856985643561076
0.5870564471140357
0.7078474622163902
0.5052525065028517
0.6265178900802016
0.4973307035067532
0.6460321003478637
0.40781863814437314
0.5641405823839867
0.36193467962374765
0.5418097357697808
0.2722204845021729
0.46229019870828014
0.430342161364062
0.5496060176825438
0.32883184519744363
0.4840388115308951
0.1813426955124933
0.38664065283113574
0.09673753441366062
0.3151938405217838
0.19224404469620177
0.3836124952578498
0.3680851339529108
0.48055858533337414
0.25925109485264386
0.41190584692873483
-0.03438134926665032
0.1885782430924713
-0.10685532395967345
0.13071758429586672
0.022459776685112565
0.2439728145079913
0.12158366608945348
0.3118018918679591
0.3148122171133045
0.4183876290832155
0.2016614299067903
0.3464634680002564
-0.25350647671693766
-0.3095607674287785
-0.025712699893676416
-0.06620034944079378
-0.16997643843495244
0.07344518978459902
-0.044707801068542274
0.17861809804141093
0.06189138198391336
0.24743271289850471
0.2691442798295323
0.15221063924167963
0.36249317963598204
0.2875883066553071
-0.6082478878272398
-0.2877150739003174
-0.48131501784793146
-0.26041827811818247
-0.705874753512311
-0.43082223687855914
-0.577204983880455
-0.4109255358157506
-0.44527939766067137
-0.22230662236552323
-0.48485061767128557
-0.246619254410599
-0.3589030899956973
-0.10677766917903075
-0.22704963615860457
0.019866484960011754
-0.10093741371414569
0.11958653225140059
0.012489072782903454
0.189154483829317
-0.7888372542210441
-0.5915936285638229
-0.6601666420110861
-0.5682895913085332
0.22833784776118776
0.10858833677870483
0.3114692516879891
0.2343022860645732
-0.3921655083837258
-0.22745823123837533
-0.48215373631401626
-0.3779151460312274
-0.5931590527299583
-0.3818538025914938
-0.6184323612362612
-0.39271219925642276
-0.5185130162512798
-0.27097336864007393
-0.4022710865343822
-0.14501114523191438
-0.27444349494550974
-0.028414325027465825
-0.1466022602622781
0.06673634578807847
-0.8379723504498562
-0.7434610814873353
-0.7191868003194344
-0.7218092602599928
-0.03157325248857784
0.13629662969933795
-0.5655728548772352
-0.5356708580548144
0.19232568679883605
0.06983144243686377
0.2642342826382839
0.18513446887133533
-0.3242118211557027
-0.4129244331966869
-0.19704175283179576
-0.34561283959469047
-0.6985131317414357
-0.49999982262348985
-0.7115635132585235
-0.5000019182452409
-0.640381670575898
-0.402842518957714
-0.5485329029285402
-0.29346944356677446
-0.43795565729737834
-0.17937019967236298
-0.3117846780501719
-0.07202141530990264
-0.8348346377618024
-0.8713988150237729
-0.7369801698966436
-0.8490492165705775
-0.18683812445343162
0.01854456269585214
-0.6305201013911631
-0.6857422335158434
-0.07042310031646214
0.08814350193790613
-0.4964060532208072
-0.502929221063812
0.15976416519137324
0.03409009388948056
0.22107534592717865
0.13982686249661927
-0.27127988793895214
-0.35916229638500896
-0.16859845289848382
-0.31824304998767566
-0.7223595815342233
-0.5000012476015762
-0.6572151688041444
-0.41255204599050416
-0.572618162461064
-0.3141761267693266
-0.46513521984977274
-0.2107792220501121
-0.7828307692277161
-0.7089439735133625
-0.9516815395838193
-0.9251808328526226
-0.3456681567886106
-0.11133998543314991
-0.6606936666039702
-0.8137732769449284
-0.22264316086876562
-0.025320870447138683
-0.5646373718661515
-0.6541778057821128
-0.10605690628519948
0.043407904355022786
-0.4430990216979991
-0.475878068706098
0.12949086820388708
0.0014593798140606073
0.18020594795888498
0.09713205555320267
-0.2288934583986857
-0.31491604486225466
-0.14390485500628822
-0.29312849010233544
-0.7295309720753639
-0.4999986908974127
-0.6706823683970651
-0.42166917774452056
0.1006086746543908
-0.02890073005656324
0.14126528688398352
0.056516950224519094
-0.5902516187965795
-0.33320262776421566
-0.6948942242276853
-0.6497544996730041
-0.977831624189821
-0.9521947238347661
-0.4897776217814589
-0.23916069182359043
-0.6532029742260748
-0.8941694104349577
-0.37437413711842216
-0.14743859263266404
-0.6043029239059847
-0.7814921459195902
-0.2552663931636881
-0.06581654547811691
-0.5140330630688097
-0.6260196822660604
-0.1379456670030601
0.001484579657100915
-0.39971039802405556
-0.45132862253759504
-0.1908384674051587
-0.2777764642955368
-0.12084275285152721
-0.2724032365629923
-0.734400535975806
-0.49999970711270747
-0.6800229104638156
-0.4300608262764122
-0.5953788004586604
-0.9641319325270521
-0.5762275602733119
-0.9415189444145494
0.07365105745598782
-0.05816158839772634
0.1039296667866767
0.017585115702007437
-0.16827529977709327
-0.03813520917415267
-0.6058467726781595
-0.35064037822253596
-0.6140498730064732
-0.9276281445395246
-0.5109317062936819
-0.26540649059424026
-0.6118022722300305
-0.8662751671874789
-0.4020712006893152
-0.1807618138040543
-0.5606557928546937
-0.7547691962673336
-0.283930873601274
-0.1037795320921718
-0.47324498737391485
-0.6028340510281116
-0.3634216079124651
-0.42977390892998196
-0.1577462288093705
-0.24508582800998124
-0.1012650699990587
-0.25349359863793547
-0.7377074488629426
-0.4999995457894505
-0.49999635892499533
-0.9262206163760233
-0.5009101213354531
-0.9095392936789334
-0.68841767635513
-0.4378950027559154
-0.5601183339620912
-0.9234684843414164
0.048081212357643795
-0.08584000739176545
0.06727103473765264
-0.020045720267657455
-0.19683942562022805
-0.07594781871039837
-0.3106973489904629
-0.1396972799011097
-0.6198474410891408
-0.3669224297621749
-0.5901067696664428
-0.90652612078473
-0.5312272293872128
-0.2896305383010282
-0.5790910563586104
-0.8440659052509537
-0.42499535943011
-0.2119015088463733
-0.5265264403830356
-0.7329936133550249
-0.43958437347825985
-0.5824754639551025
-0.33221403164727187
-0.4115447401347714
-0.12787485981367802
-0.21596979149860684
-0.08208413549368869
-0.23661254862063347
-0.7397747952772712
-0.5000007464401346
-0.5007743494444183
-0.8964689554203613
-0.6954203362495226
-0.4452991314489619
-0.5495198378268209
-0.9109774416867414
0.02447101246592677
-0.11122947908468264
0.03183202144874749
-0.05712781075686384
-0.22389729681680096
-0.11286452237868677
-0.33593931014400624
-0.17391931706352529
-0.44661577550520437
-0.2413941278877284
-0.6325864703424403
-0.38205300257393543
-0.5696652158263357
-0.8901244827074076
-0.5481300313471856
-0.31255609058594175
-0.5528450488028276
-0.8270984315287393
-0.49733062968700087
-0.7143525908979943
-0.4102624750067658
-0.5648272624218161
-0.30353872829991924
-0.3951119260040335
-0.09980469237596189
-0.1899777936856293
-0.06555145017623422
-0.22104319963460184
-0.7410281515339915
-0.49999995990850893
-0.5004617817464637
-0.8889825484650152
-0.7020573099628534
-0.45227800549608227
-0.5409486852354426
-0.9005686721753693
0.0033759879701671523
-0.13485456745692825
-0.0036323802935272487
-0.09372162287796985
-0.24922688547571162
-0.1485281008738036
-0.3605769159241455
-0.2070797920710334
-0.46669067088920807
-0.26968882030014146
-0.563692841286925
-0.33428607677478694
-0.07463660075115255
-0.16479415970883507
-0.04935159520133596
-0.2076312033595497
-0.6431468082051381
-0.3963987979419981
-0.5531160487223747
-0.8790456608123913
-0.5307395820062117
-0.8116142634180843
-0.4720286508382001
-0.6979436710498658
-0.3841655962127151
-0.5491948873190551
-0.2788474825002123
-0.3813541810581843
-0.7418801352563853
-0.49999979907576053
-0.5001486834892912
-0.8845908248486027
-0.7074925355296628
-0.4590191217951928
-0.5331072367239355
-0.8945943118504411
-0.015307767126165425
-0.15529794341148498
-0.039186422935532525
-0.13036068162010744
-0.2725571810211316
-0.18414255804373705
-0.3829848659354209
-0.2394158863906172
-0.4862947297216676
-0.29706417452722245
-0.5783987939011993
-0.3552107997011581
-0.05038963287401275
-0.14164528232073692
-0.03458074263488826
-0.19446708734449134
-0.6529641245435606
-0.41028600291885436
-0.25504515825244106
-0.3678292258705902
-0.5391704309526384
-0.8687783062047184
-0.5114106471009267
-0.7985577288553226
-0.44944079202443765
-0.6831997072542417
-0.36079747775690235
-0.5357001410813061
-0.7423503649649587
-0.5000000264969741
-0.5001293424618138
-0.8823005154337987
-0.7119661449806739
-0.4655769769058677
-0.5262341276852379
-0.8891593663082815
-0.028639369491007698
-0.17176815265937517
-0.07497039534018884
-0.16721633632657126
-0.29319774479617594
-0.21960921807100361
-0.4041560201957601
-0.2713238408400349
-0.5049039278775139
-0.32378396251211083
-0.592378952683977
-0.37557743931361975
-0.0256585024697658
-0.1187721728535484
-0.021050667307296184
-0.18282028739262104
-0.6623434600239824
-0.42368106360773605
-0.23251332947189896
-0.3553244405294418
-0.3387477261139712
-0.5228727684864976
-0.5267402981896737
-0.8599280660299373
-0.4935927535829436
-0.7859694075429204
-0.42914447038027
-0.6701001139825894
-0.7426257196278804
-0.5000002565815115
-0.5002447547260995
-0.8805027076189307
-0.7167769713139355
-0.47200596093921726
-0.5211438665653177
-0.8846853163514378
-0.016542696358044343
-0.16585390305261374
-0.11047084362038621
-0.2048510009433995
-0.3099862754545248
-0.25524112155223283
-0.4227246740939946
-0.3032594663869491
-0.5219242771424243
-0.35022953711919447
-0.6061102496006235
-0.39559515976438014
-0.003507727608236342
-0.09725089247924389
-0.011764743342925849
-0.174297565068229
-0.6716469979569453
-0.43695644512310466
-0.2117294855752485
-0.3452458794256477
-0.31938575519148504
-0.5112717242814143
-0.4098506559683114
-0.6587187957838726
-0.514582530036158
-0.8510273162911536
-0.4781060803417488
-0.7754747207650343
-0.7428503011810373
-0.49999980123784693
-0.5002201598634031
-0.8796994496843756
-0.7213265858354954
-0.47838097646497213
-0.5161606728826531
-0.8801127729472437
-0.30685276547911183
-0.2915916758950362
-0.43761703832005727
-0.33530490727759177
-0.5370809103760538
-0.37664529884381337
-0.6190431611846997
-0.41552761813885986
-0.015443100436125885
-0.10913642924716271
-0.01018844573853215
-0.17451379985366883
-0.6806024145605067
-0.44999404379628066
-0.19084407805260056
-0.3377128265579246
-0.29821438226275987
-0.5009279255953519
-0.39197277110412526
-0.6480095299960312
-0.4627424618306929
-0.7659643119013912
-0.5048932230415253
-0.8442279843002735
-0.743363322708272
-0.4999998893915933
-0.500139974746379
-0.87921799070889
-0.7264387767586082
-0.48478016441620286
-0.5112583569057422
-0.8770495177560801
-0.4372104402629872
-0.36816795296673754
-0.5500427393901023
-0.4033814280674519
-0.63056602611218
-0.4355979814435029
-0.03971533781207816
-0.13426607552134467
-0.016557542560626488
-0.18266285247835154
-0.6900531376996549
-0.46313223135806963
-0.20206029563998743
-0.33690811483346567
-0.27915856022665314
-0.4915346615604462
-0.37460507386106645
-0.6377333466751532
-0.44801790962513743
-0.7559799492912286
-0.4949627057288605
-0.8371377459665208
-0.7445672139860713
-0.5000009971191476
-0.5000080657360144
-0.8791097652583224
-0.7319416409699866
-0.4912817004178804
-0.5065666825319067
-0.8737073405058887
-0.550271699656193
-0.43037606643900417
-0.6403400578244519
-0.4559444383607307
-0.07847325375887836
-0.17296961633553626
-0.028153838581648848
-0.19449824181327194
-0.6977506155305293
-0.47647970989584537
-0.22522379765719477
-0.34375575538487313
-0.2880065348423684
-0.48953953749261314
-0.3578897937940872
-0.6288130401266859
-0.43463312205443794
-0.7472641558310508
-0.48483972098317996
-0.8308907208644875
-0.7464069591115472
-0.5000010942322479
-0.5001143678318976
-0.879097057606967
-0.7369464122340688
-0.4979058935519999
-0.5017371158634985
-0.8708744791151648
-0.6421454794832423
-0.4769105631232405
-0.15528805610463028
-0.2492787305491742
-0.026363682323176214
-0.19302026485693127
-0.7048367560310513
-0.49001150930985615
-0.2624390552138209
-0.3551265503291883
-0.3091781337286184
-0.49435273217554393
-0.36359924057605586
-0.6244191223690799
-0.42038307618026455
-0.7389229224167214
-0.474925491333716
-0.8248096335310907
-0.748129316503923
-0.5000011077604951
-0.5001583826989182
-0.8789072580495451
-0.7421407443305668
-0.5047897816509893
-0.49853984822438113
-0.8678337030173682
-0.7094136075069722
-0.5042429148270579
-0.334067189728789
-0.35643997927248305
-0.34160161307703807
-0.5030652043882092
-0.38051441722110235
-0.626899207669347
-0.4252497817459636
-0.7339856123512427
-0.4661821739621185
-0.8177761382601274
-0.751201800309783
-0.5000004926625975
-0.50013998592855
-0.878296907924014
-0.7482902207157035
-0.5118202416124984
-0.4925104765277679
-0.8631340595359188
-0.40498381234355607
-0.504123172591739
-0.40768016801758117
-0.6327220401902429
-0.4386599882474914
-0.7348369520305809
-0.468855146195649
-0.8130203243278651
-0.7598455177065153
-0.500010271226389
-0.5000374410266522
-0.8757975734138077
-0.4945846895692595
-0.8591994761696231
-0.4632033655169937
-0.6351345645760937
-0.46025141982944334
-0.737599743950371
-0.47893491969023855
-0.812234750432742
-0.4999999490732683
-0.8722699549411609
-0.4986636409433487
-0.8572979123627008
-0.5018957471406269
-0.7394930726356569
-0.49184607730469837
-0.8127501839546871
-0.4999996435413574
-0.8695710879159896
-0.5063809505219858
-0.856677389128416
-0.522024326499405
-0.8158069509027309
-0.5000013088711344
-0.8666417311033445
-0.52023140519279
-0.8602718684692177
-0.4999990389102979
-0.8720106282069563
0.6985024521384203
0.5000006921237493
0.7116705260861861
0.5000005985842914
0.7801144674524007
0.6064146848049589
0.7836837851974102
0.5951828430108296
0.8617496671308301
0.7208536168094057
0.849425336771193
0.695321786612084
0.7225051223721178
0.49999969799691746
0.7828576776714948
0.5843890161799321
0.9234392541115818
0.8254055096774997
0.8924506636428483
0.7837097381122746
0.8342899940044708
0.6698835168336709
0.7298272102222072
0.5000006820133356
0.7812989414900776
0.5742373662896425
0.9424050615155634
0.8949050668330586
0.8928537234206734
0.8378971703127045
0.8605103980627247
0.7415092348268297
0.8198147887463827
0.6460339074175415
0.7344330520195025
0.4999998903893902
0.7784627924668489
0.5646847101131978
0.9059747110081088
0.8427572975636702
0.9110084071511776
0.841897758760944
0.8453800051085495
0.7805850366296382
0.8313359345983419
0.7023465991697972
0.8056718518761938
0.6241230810915804
0.7374700175929848
0.7737002821496604
0.49999973720913354
0.5558356870522686
0.5000024594505097
0.9262731656187143
0.5009085266449395
0.9091807985448324
0.397335046833572
0.8744663284478034
0.4171852590824685
0.8570250362038221
0.8211276627173535
0.8734093520236592
0.7490970609176769
0.7974518682270281
0.7828065455689079
0.773488611733613
0.8016836715022981
0.7270951732084951
0.8047821009820869
0.6665415509691678
0.7910273587058063
0.6040437859820486
0.25382610651190257
0.7799299688914383
0.2964273043289298
0.7649818982214384
0.7398270303809226
0.7690142145185055
0.5000003025739036
0.5476855982968176
0.5007726987021294
0.8964630088601082
0.429902299092221
0.8475023018080944
0.7090145045364404
0.7997242339003457
0.630579589239908
0.7200768184154157
0.6800833760330268
0.7227172547381455
0.7289309002742956
0.7099356443185141
0.7640614979014025
0.6785676573870929
0.7795079930766226
0.6340529919873779
0.07200550952313928
0.6395250624185992
0.14253278053622512
0.6284211556586642
0.7782624404885028
0.5853819031403849
0.32814254510677443
0.7611851316805874
0.7410910861197174
0.7642228136984697
0.49999996674510266
0.5398150887074886
0.5004596788341379
0.4400735755135537
0.8888621850751954
0.8435784606917844
0.5582026543973467
0.6437444088273545
0.6209209659989038
0.6545533523123785
0.6825658279681011
0.6529493801602204
0.7299593619469763
0.6351256167799744
-0.12948198724434412
0.4522453923468336
-0.02791435838839998
0.4453363205652332
0.7574235596969527
0.6044466405487394
0.19689116506582405
0.6321471924338545
0.7660317048813079
0.5681509505414327
0.3523015731672856
0.7616670821025345
0.7419483236690851
0.7597359702545234
0.5000000170192236
0.532476014777803
0.50014789324947
0.44853097031319367
0.8847885173541867
0.8433900386158226
0.49628017068671937
0.5735690637440339
0.570412735089514
0.5932732897500657
0.6425569585198057
0.6017843232936435
-0.30835603469262207
-0.18960799786925037
0.23745307445299726
0.24354238534123399
0.7000862217378649
0.595748021647536
0.0489886911168716
0.4579258170067026
0.7372401468959565
0.5772221006930528
0.23762237248399903
0.6381463592141894
0.7544952383047184
0.5518815542985169
0.3705325939986228
0.7662776752689695
0.7423207500607026
0.7547324281696921
0.499999988650734
0.5253130658593071
0.5001275207406858
0.4547331086603765
0.8820780043229046
0.8454021318208421
0.74261632511884
0.7496069739691982
0.500000813607778
0.5184008337050909
0.44357458328231164
0.5112850795663899
0.5275338509291964
0.5380612045958142
-0.44969458909731147
-0.3220739247945158
0.03438452170951389
0.047635851332827106
0.6075230184459394
0.5551222150066988
-0.0988024039211815
0.2658697351948782
0.6735537657407741
0.559812520864301
0.10439445051532573
0.4745836296777871
0.7191867453163495
0.5519111623174835
0.26781169614206307
0.6487319769169569
0.7430661241749829
0.5365409945459538
0.3854891413892771
0.7729353308715832
0.5002321716626339
0.4599365153625925
0.8806286290883849
0.8466783673910092
0.7428298534551506
0.7446698190780944
0.4999999845837586
0.5115781912792379
0.7319359418041884
0.5216560821537201
0.3993283051617067
0.45460815366849794
-0.5472035544882031
-0.1443326132482935
-0.41695535144525087
-0.12461079155581453
0.4897228948707514
0.488006385855423
-0.22421411540831038
0.07650457322162746
0.5758051913823553
0.513235286933152
-0.030021080528340016
0.29283927901080836
0.6492016019294419
0.5263989369924285
0.1470345132187743
0.49458241621272686
0.7015095338098398
0.5280061086141807
0.2926692430470527
0.6616472726917818
0.39847728198449506
0.7787345766064193
0.5002179648764737
0.4656412720242727
0.8797784227956305
0.8486947921518401
0.7430169344505285
0.7400485693360671
0.4999992434333587
0.5047817370685891
0.7210661995997586
0.5072443085362556
0.6843317815972054
0.5053116625621051
0.3592713242291019
0.4035776444190978
-0.3219897605568821
-0.09031906558414417
0.45574681467450434
0.4427036395063164
-0.15101642738933285
0.10824921818986669
0.5477879236430389
0.47434157741750316
0.02179035193820536
0.31738779813901236
0.6266020145821675
0.49517804132658727
0.1814132504091544
0.5143293730368751
0.3132718155045353
0.6728683674406931
0.4097819754838357
0.7844371497687338
0.5001368382834038
0.4706582577549435
0.8793838459253164
0.850931232584741
0.7445566246952136
0.7364375867407026
0.5000008896031503
0.49802069082874567
0.7109056309634109
0.49299663496252816
0.6680904605162565
0.4832678051333696
0.6048171024147221
0.4657076113099188
0.3246614158963719
0.3568998503378736
-0.24903520303400917
-0.05669937708342178
0.425194271535617
0.400654046157084
-0.09461504101580231
0.13790375820714984
0.5219180803753151
0.43809666326498403
0.06388893171797966
0.34275847806175147
0.2104726371462305
0.5307602177101088
0.33214568300086533
0.6826142991038092
0.41924642475548163
0.7886362706904223
0.5000020068974758
0.47504168419944104
0.8795512672708067
0.8531166414685674
0.7463917351182732
0.7336757698374116
0.5000007304524504
0.49112174974055095
0.7019576974939621
0.4790080716675741
0.6527333885284006
0.461865286115815
0.5842283233059334
0.43738665080104955
0.4975294043022269
0.4036828928859372
0.5001144305995922
0.47925828713000745
0.8790581257087055
0.8553660231774389
0.2925551839040785
0.31388776570955546
-0.1934651882139431
-0.026052107484925396
0.3970603041052984
0.3614817683852928
-0.04811424650929308
0.16760443831001545
0.09902955107297931
0.36420966990388015
0.2363167546711959
0.5460140900869009
0.3480274436910767
0.6902363767980483
0.42923778187587447
0.7940122699322483
0.7481006775034345
0.7314392121618203
0.5000013075543397
0.4841173292112471
0.6941975739145098
0.464847885155866
0.6389628500734861
0.44089515033496074
0.5650674921528226
0.4101103855190673
0.4744630804956862
0.3710709743447556
0.5001555433276501
0.48314208643244944
0.8788683960047321
0.8578843603397158
0.37084571237177233
0.32447317637409423
0.4382900114275136
0.799309146412024
0.2629066395560618
0.273225502237919
-0.1472678763924274
0.0027171353246901175
-0.00940257302991146
0.19109846899423677
0.1304219582353795
0.3839833630023511
0.25815845671224114
0.5580234805614025
0.363238426844279
0.6995958049865458
0.7511002685046035
0.7309345492360019
0.5000004254749597
0.4768666360699459
0.6877152477235579
0.45054237246468476
0.6267675138489274
0.41996013557560974
0.5476258664660238
0.38335305966681155
0.45248812555141754
0.33938601377087513
0.5001370777067418
0.48722285614492405
0.8782195040206242
0.8593200446489604
0.34642575380533125
0.28926265799041945
0.4466230793393037
0.8040063836781784
0.2357984784000515
0.23487837588763394
0.37698609084777623
0.707641362133815
-0.10787794097055235
0.026524854258644974
0.02464954105374828
0.21424266044363957
0.15764343616033671
0.4011058153415608
0.27869695594479077
0.5709861638610682
0.7598289481335656
0.7406984366871344
0.5000004282108609
0.4693629064260269
0.6835821581036231
0.4359144964789814
0.6161817931409624
0.3989027536996661
0.532535646102381
0.3568140353667191
0.4331218874767316
0.3086681926078
0.5000372160840556
0.49164710443244625
0.8757848809752967
0.8588161088081884
0.3231880282434844
0.25484304195901863
0.45586884706800485
0.8078441589952351
0.2102411055241044
0.19804495681510767
0.39060258541017456
0.7156896176277082
0.29786132123639486
0.5828001344157013
-0.07313255942280675
0.0494212330746966
0.054831849165495945
0.23358949808680493
0.1831366651655556
0.41746654789809184
0.6939694445176096
0.420773161401104
0.6093358129939571
0.37762921275338246
0.5192711984376285
0.3302990607936165
0.4157889303232364
0.2781450744816216
0.49999967733111295
0.48983649420608627
0.8722743003457907
0.8550707013451425
0.3022781372582568
0.2214343315623096
0.4631144341092705
0.8090776732760399
0.18617542611534343
0.1624570433295745
0.4028238101089521
0.721800636378653
0.31631514825209506
0.5942752051428773
0.20644963357283405
0.4330161140533911
-0.04175889404909067
0.06939550984611818
0.08329242632898003
0.25248838545710245
0.6196106919408385
0.35583927958872225
0.5102783964653663
0.303687317527607
0.4015164660883674
0.24773958321420264
0.4999995590180991
0.4832562938133402
0.8695660841320327
0.8510736807988215
0.28413588247075805
0.18847575716825576
0.45913756001021555
0.8053432851140164
0.16395253190758982
0.12743391395676365
0.4152900773574696
0.725394715904412
0.3337862319350729
0.6042008682103203
0.22861785686800012
0.44794897280128565
0.10993566443405499
0.270903941180388
-0.012953473570805452
0.08854881061957537
0.5214091314832071
0.27650462242404106
0.3914332569538898
0.21708340628722994
0.5000015285715264
0.4756467092169235
0.866693292501253
0.8457723610207407
0.26842626913153755
0.1555607358435043
0.44905844940693584
0.7998502751985999
0.14421375125810398
0.09304146119209651
0.4096680790489472
0.7230237742670154
0.35131608145088766
0.6107423806223283
0.2504011633110309
0.46108462962039054
0.13458354164401035
0.2870740947869246
0.014327983298381572
0.10717492082278358
0.40313284914138414
0.18557680923084402
0.5000040959780665
0.46085889539759084
0.872547476513778
0.8505958219624291