<?xml version="1.0" encoding="UTF-8"?>
<VTKFile type="UnstructuredGrid" version="0.1" byte_order="LittleEndian">
<UnstructuredGrid>
<Piece NumberOfPoints="4390" NumberOfCells="21696">
<PointData>
<DataArray type="Float64" Name="Fiber_x" Format="ascii">
0.25500339999875843
0.41995532922373696
0.13171420521127955
0.2784235466115697
0.33040315189560315
0.4973042615281157
0.23263333148040735
0.39793262844968064
0.5578942849601464
0.393996269482288
0.5471778994346427
0.38134468456457105
0.5720718604936691
0.415469773238707
0.644597721600392
0.5460750273782642
0.7037887273440376
0.6948615824218278
0.46168486261627695
0.6226161486044175
0.5219143153132678
0.6810710156174574
0.7006252472120861
0.5413460585307242
0.7709341555723777
0.6741783325903384
0.8211696139766186
0.8132061687436656
0.5142623094212239
0.6686310078905154
0.5987768290006222
0.7389322781997086
0.7619364982070608
0.8120381497646907
0.8038815889966393
0.6383849242189249
0.864537234875667
0.7732783828100229
0.6700058596667002
0.5282026518115536
0.6964310108169863
0.5686588338824036
0.9028538038507513
0.8973327326203023
0.8711779274661219
0.910802828620711
0.798924072157797
0.8510025742998056
0.877998172981423
0.7125491168028634
0.9240015258484792
0.8423019353260791
0.3492708706787965
0.48902852636796024
0.4676271825246885
0.6136832736575585
0.345788046447606
0.4725038068439922
0.49256911936725345
0.6090261418029972
0.7900992717432141
0.7972790878948696
0.9555976152923676
0.944977415616682
0.9480936487544123
0.9733809389226141
0.898200616365396
0.930254054299149
0.9137971127750859
0.7568481369283803
0.9486284710124808
0.8774956486020804
0.6262635682466757
0.7393401280812791
0.5797725969541554
0.7008296294510669
0.9684159783971599
0.9550717229212049
0.8777067386509648
0.8671972785111046
0.9891889380006835
0.9975950824750218
0.9619050032110661
0.9738157195184107
0.9139755919947155
0.7710670592775691
0.935478948731819
0.8787210212233291
0.7130242187659517
0.8351150680791336
0.6678491212940224
0.7652964728310917
0.9446368636432688
0.9288955894378855
0.9915810773743539
0.9841454118429495
0.9304848180548059
0.9036511062894783
0.9888882393264238
0.9796847359535839
0.8804997602306922
0.7575008025672336
0.8870648979118325
0.8492214496520906
0.8847183959921777
0.8697609630379279
0.7651096515456601
0.9007036932219253
0.7304128087964035
0.7984035617095578
0.9554395293589215
0.9341117638270874
0.9776367475045005
0.9484132548893839
0.9475137196775419
0.9051632149950354
0.8814400714122447
0.8505636575629526
0.8405634358530845
0.9281243381321244
0.765003379397603
0.8012762928217175
0.9293459450161199
0.8802552789532005
0.9287812935018526
0.8721645505382711
0.8459254302110314
0.7785540993189347
0.8737895238236517
0.9193357349457794
0.7955002852173021
0.7738173073103407
0.87578724275483
0.804108503994566
0.7880777416836146
0.7055902261186271
0.8445516357309237
0.8800484979734361
0.7900487347446825
0.7160475820512492
0.7926291795015333
0.7358043799861962
0.80440503139205
0.6320804491506393
-0.808419994315823
-0.8744234282014665
-0.8077529855070187
-0.8904474197344595
-0.7300452108055464
-0.7654476983334172
-0.7866614133349603
-0.8471229798615804
-0.793013822531078
-0.8870197626045958
-0.7797053063911348
-0.8702014109686455
-0.7091326972394371
-0.658989931270443
-0.6951543885765781
-0.6930285568513552
-0.8845381204879929
-0.7797940870608431
-0.8528754769119322
-0.7317733278403629
-0.6682639159882929
-0.6563714849488664
-0.5902847721868151
-0.5625214319032926
-0.5552465266097264
-0.5714748076393973
-0.8440755876083559
-0.7253520499312092
-0.7789511824692338
-0.6480017090097944
-0.6440945061427367
-0.5824757114434587
-0.5175371501853324
-0.5059507205035711
-0.44158805468654944
-0.43369043788351913
-0.39381048095831006
-0.4304578888345287
-0.7865999431137194
-0.6673580463149812
-0.7051472300305317
-0.5811171572301446
-0.5799941554766169
-0.49048892143514744
-0.4814508361603079
-0.41030226849983936
-0.3469289669295796
-0.33583531303440406
-0.27678242514568846
-0.29962102473594204
-0.21786476403565322
-0.27367067185996274
-0.7988022404154613
-0.7501389918121353
-0.8002287947933875
-0.6935528871966186
-0.6915924230722352
-0.612141567066548
-0.6330110888077874
-0.5220361276302732
-0.5231344912969633
-0.4345482109884603
-0.4143608091453538
-0.31475797863618893
-0.16395501089712183
-0.15345530979447725
-0.29871833896687056
-0.2231814835249928
-0.09959994357966483
-0.15835970974381985
-0.03410436436208141
-0.10419259423761455
-0.6288256469736558
-0.5635826837358184
-0.5305293142188778
-0.3975444726773009
-0.35922730139543996
-0.27115751200186133
-0.2342077228061423
-0.12712219404907799
0.025435607392061296
0.031145917654155083
-0.10501332153338597
-0.02839803488633958
0.07895098001999191
-0.01371065160167988
0.1512833991983296
0.06767648417291261
-0.47408251842890786
-0.40465351781726294
-0.38648005284253584
-0.24812121692966266
-0.18151219743039468
-0.09734788058677536
-0.04339571337614951
0.06535037662548838
0.21344434428096906
0.21158760708152655
0.09068157796898647
0.16613325025799902
-0.34274198772711534
-0.24135059512816784
-0.27156299893087044
-0.09487021334519995
-0.001595806431170753
0.08034081824162681
0.15059736770504276
0.25475820172302566
0.27893098064101357
0.3498491091035378
-0.16742822770512672
-0.06134356565557937
-0.14598731627217165
0.061457080711017735
0.18772628983533587
0.2550143819027246
0.33895999404834054
0.43529269515083907
-0.019887740081716634
0.12081351189404174
0.027291238051379764
0.21541136755679266
0.3631193191747673
0.4197806135054247
0.1720142784416558
0.301442949539472
0.19484712389498868
0.3611562500314136
-0.6896613388357554
-0.721032349631503
-0.5848995187225051
-0.6083854741725706
-0.6202115419503437
-0.6796175940735404
-0.49824649382386127
-0.5498136509588764
-0.4740078968497229
-0.601164836080243
-0.37469728427598636
-0.455076447898208
-0.4957500811671328
-0.5153882392098883
-0.40223785644053806
-0.442996316018359
-0.32491049906787284
-0.47304008546434134
-0.19769489344000607
-0.317156131892052
-0.27234039951223044
-0.33729061217208517
-0.4186648207735155
-0.4386730454977502
-0.3192510141027829
-0.3555911206287271
-0.11464035147631792
-0.2925422923834544
0.011513874896874603
-0.13797601283983488
-0.10301031136250838
-0.19440025027509575
-0.18628925443324518
-0.24260541931329224
-0.3577125216578577
-0.37496744481870314
-0.2466383813422566
-0.2831734049078418
0.1368360814680112
0.2284983746227662
-0.07722809302069494
0.063958442220803
0.09264924074885429
-0.01939814492958035
-0.020992828454544674
-0.09807956808602622
-0.11561991445455513
-0.1654749359488442
-0.30389980521084375
-0.19112796939115054
-0.31972842423082726
-0.22217074734888176
0.6475076067467919
0.39008671752391205
0.4986391900053193
0.3602607444505464
0.7312876887426254
0.4218251791621528
0.5883016359769819
0.4772625325367862
0.38078475152497304
0.13751976998645818
0.4116888955906925
0.2555820934774483
0.2894253808068044
0.16652671752822323
0.1616511596234744
0.07019147719991022
0.04980131733407644
-0.021530467090198943
-0.04775394932821771
-0.10112527506119214
0.7879048426821422
0.48019682565712746
0.6575814924234511
0.5439110481391154
-0.25792276099579436
-0.14125699545120016
-0.2699741075685509
-0.16847988289836938
0.40371584369846764
0.25394475324470195
0.48592078233480324
0.3189842348343061
0.531106977805313
0.32424641051122594
0.5705213176323509
0.41570036751393963
0.46174300996793793
0.33795709808060354
0.34389531885298796
0.24323692558940305
0.22241019215027175
0.1401566179521257
0.09994286081834391
0.04140379779043055
0.8001964891478812
0.673760355599275
0.7386040319469105
0.6261808231266118
-0.0018262229072793618
-0.04572221070528846
0.560300713490603
0.4632575657867233
-0.217346785787039
-0.09825356355786133
-0.2274576758721926
-0.12141170501422476
0.33196858268608787
0.4144287689860323
0.1906888052873018
0.30082406502070264
0.6680675676621316
0.47097861881609415
0.6753974090954535
0.5385875576600121
0.5938164916487457
0.476728609968316
0.5000535762281294
0.39691259094695197
0.38589575840852325
0.30113062325223816
0.26849367797780466
0.19700282823731488
0.7581013133581261
0.6653892854771627
0.7205840909859816
0.6660196926293597
0.1510394313044603
0.09514591797314617
0.6123576939071311
0.5942449060858693
0.03937910292634999
0.0027164617114061804
0.49145524208291025
0.4143953670991794
-0.17979821282692177
-0.05808992466728824
-0.18907231765106602
-0.0789635134638601
0.27614498840882423
0.3589266808572261
0.1521921764443885
0.2757174679903869
0.6852356508395775
0.5807845529746133
0.6186301849343337
0.5192738498694757
0.5301419381860119
0.4418842949899292
0.4247666539127945
0.34737000823911923
0.6716023345503642
0.680039304622076
0.6483140708326642
0.6680445971307564
0.30708901280840656
0.2441872252601167
0.6313348252701543
0.6502128361062306
0.18877736715239313
0.14116871157240157
0.5516486752400441
0.5366683327614616
0.07946515500257734
0.04604347604876494
0.4387893382230574
0.4005017239787354
-0.14445425354517358
-0.019562655249979383
-0.15342886250679585
-0.040107587272597105
0.23078158420610884
0.3143267887525041
0.11161442109647945
0.23755791583476563
0.7025839223365484
0.6086161591281006
0.645754858818182
0.5504610224394624
-0.11128440373555147
0.01617051409133694
-0.11807930576686082
-0.0035434832181865123
0.5546169048620339
0.47562359927005254
0.5650349247022243
0.575426671923728
0.5814610642555483
0.6510114074861147
0.45505144106330697
0.38486977759090635
0.6140434501283091
0.6913722361864303
0.34078708734255625
0.28413174248426815
0.5845429921859355
0.6276749995115236
0.22611718910137513
0.18210491992097474
0.5048403044224752
0.5158277517884011
0.11714612632064623
0.0853808702371136
0.39610190268863915
0.3714028035761258
0.19269927695438327
0.27764433984586495
0.09018439941390854
0.22398609617386095
0.7086047166309768
0.6277855569492714
0.6506725367311702
0.5740081617418017
0.46215070487303755
0.5698153269792042
0.5000684296688005
0.6151832707255971
-0.07889556438210844
0.05059567256935753
-0.08616666699030931
0.0311737808926675
0.15202191549121305
0.12208108770382911
0.5761472131164581
0.5031874014877686
0.5699954293231324
0.6906880325182683
0.4826696512323592
0.4168205230237443
0.5849396726069562
0.677539036279484
0.3753213896529038
0.319260865494635
0.5471091837559022
0.6118722721668908
0.2604429429640944
0.21871893439504084
0.46656356834502555
0.49784977122650265
0.3607160446942132
0.35740797657852047
0.1594709917790582
0.2455097807063114
0.07185476628014398
0.205428571270015
0.7172222558485243
0.6409290280351013
0.3768682401357809
0.5198660905008642
0.4338531058163642
0.5908395304577642
0.6639473460875438
0.5920917811640456
0.5138154846190721
0.7036103182636779
-0.04672168935442571
0.08578758729491166
-0.05589405652152021
0.06411828281920715
0.18716625148247681
0.1564025230562271
0.29289494231304475
0.2525238100547532
0.5942182698577302
0.5260853729318735
0.5594006263335319
0.7054092971536241
0.505374999823431
0.4440564953691672
0.5605970160986558
0.6796732188701062
0.40189920926950634
0.3504809075596916
0.5162271032538767
0.6051967906367937
0.4346977819784022
0.48503341427740043
0.3305067979835029
0.34591855290872786
0.12986797922330728
0.21646801807425486
0.05849178879349343
0.19570473805599348
0.7202849112364981
0.6508861707762418
0.4559598108985109
0.6396866471618913
0.673977849956601
0.6066378045594385
0.517969663593998
0.6995809599590268
-0.015785078031379404
0.11975707667801028
-0.02694574520669286
0.0958023923717338
0.22246957345864254
0.18909419597006297
0.3248295020724455
0.28402084559068835
0.428291586527664
0.3792093642090868
0.6091830048024124
0.5455688975988289
0.5485783031129674
0.7163522944117816
0.5278600497244189
0.4685794814929719
0.5393488679465419
0.6807030448035756
0.49030937425067705
0.5985662489268232
0.4071975689113475
0.48062406459773477
0.30311999602806455
0.3387817817321398
0.10190592856495896
0.19024236532969355
0.048374356227337406
0.19006291731748418
0.7218389945034431
0.6589639191553749
0.47031345488956505
0.682410515118486
0.6829934694077195
0.6185667103253207
0.5187937865009692
0.7202723587189971
0.014449576814754478
0.15394100914663644
0.004958768004314816
0.1277421362668889
0.2570420052277573
0.2204279490954311
0.3574134464863837
0.3138305120734085
0.45491483470171545
0.405532553199291
0.5464254033595456
0.4906106665295506
0.07640604779362645
0.16578129293388638
0.045145748223033466
0.18936409832828033
0.6231034484689305
0.5628456997591711
0.5380136551496744
0.7266291876407845
0.5213686387022596
0.6828023664305664
0.4674545375221114
0.5986657455897615
0.38194029740845764
0.47628975207909324
0.2783044536202204
0.33650273660433394
0.7245381094975204
0.6642863845780165
0.47959922391994897
0.7097356891813651
0.6911837399372056
0.6291561000764447
0.5176559413664643
0.7429838847740379
0.04715718917894713
0.191646601709145
0.03434656292055793
0.1591119178903887
0.29308308044742365
0.25170409243252817
0.3900586632452424
0.3422247480295127
0.48283575778197807
0.43009008968262796
0.567189296500019
0.5108638858219311
0.05171530360139853
0.14234419039896978
0.04321369833751931
0.19042148517093208
0.6373983572438459
0.5781427792360211
0.25514161697786936
0.33700406549209644
0.5275982772189157
0.733988091553671
0.5051102976496822
0.6881040259264387
0.446082362021237
0.598592630106249
0.35951145574311555
0.47668854850754816
0.7278552818466563
0.6683320083078541
0.4857720277949309
0.7334587961728979
0.6985519016423566
0.6382486754512209
0.5152875506939756
0.7563937455671303
0.08315148391622733
0.23295263138948144
0.06446975071894596
0.1911048665886446
0.3312724594829823
0.2820457108585547
0.4245459234058075
0.36993584157009374
0.5114547325243343
0.45366352803765725
0.5891506495124115
0.5292247445593236
0.027949851050795615
0.11996434935781279
0.037707370725199994
0.1840958986457138
0.6531074353941895
0.5919133692018311
0.23282796293540153
0.33953207020037923
0.3384579164633869
0.478590552823957
0.5185524495704631
0.7450783147472053
0.4896482670063082
0.6941593708544554
0.426413420354352
0.600930724414625
0.7314215109577995
0.6714816822258082
0.49023104570138126
0.7526727715534491
0.7081860549743862
0.6459392057697491
0.5117751817199901
0.7712288450062522
0.14429149767324723
0.2995054899748894
0.09694846514199235
0.22453568980447983
0.3760253190586589
0.3125110820180567
0.4621204806676885
0.397256197415638
0.5422355986408226
0.47646639434474036
0.6121574336969146
0.5469957721188116
0.005950554561222506
0.0862672970322849
0.029849007057496373
0.177483242034612
0.6691549708928795
0.6042861995576998
0.21177412382441063
0.331426528807281
0.31791921591589556
0.4803633156090866
0.40878747151959305
0.6057144053791471
0.5101740660592602
0.7551931510293527
0.47427850386509585
0.6983780964845787
0.735249642326166
0.6737575310972362
0.49192228112615527
0.7727173009012245
0.7194596478364825
0.6526712219685654
0.5109079124388637
0.7868324334936706
0.44354588349239515
0.3441712733693338
0.5073369339452639
0.4245116949715991
0.5774751027362804
0.49888990520772764
0.6389522534804303
0.5641087636998318
0.021121782009902914
0.08685621294220214
0.06876268483901143
0.2157640353084414
0.6868703235294867
0.6163170482522824
0.16810507255910087
0.3233941664665623
0.297958942859237
0.47044359826017124
0.3911860496152941
0.6054671164851078
0.4603372864007949
0.7056935172865958
0.5013994359275639
0.7646557105270848
0.7417653822542701
0.6751755051749969
0.4949709495488559
0.7919843018952769
0.7325900106277274
0.6590720436606985
0.5067354133846353
0.7980794211717911
0.5884944890295473
0.45390732521789584
0.6203541993788666
0.5209134998817176
0.6699946596711498
0.5805911053910365
0.043605490643430916
0.12137079898994442
0.1377026930628823
0.2825616275822033
0.7089694363631267
0.627565375627168
0.1519384596599136
0.35892176796408815
0.24639838359081906
0.46102471545496304
0.37330049170576224
0.5939117126880666
0.4477199423971026
0.7022047707473349
0.49179005467243503
0.7712892658236699
0.7498361218135725
0.6760436017234074
0.49655170346140176
0.805932703145179
0.7500352439904462
0.6649243702307003
0.5024019784631577
0.8068163438676378
0.6963913126987774
0.5431877299957073
0.7097956861314493
0.5968126077393756
0.07929536538024665
0.17070497631961945
0.20457482180350237
0.3460254758068956
0.7351831690422584
0.6381679001230043
0.1951251716986173
0.42029599467689616
0.21269047364306862
0.49276252153620026
0.3167985809792609
0.5816890746091287
0.4326409474965855
0.6910763304745495
0.48329856124882875
0.7692443159042872
0.7620817286394902
0.6762567397076483
0.49637103523011544
0.8112715191649772
0.771386763138313
0.6698139606948548
0.49933433291548096
0.804264396209998
0.7748431488838897
0.6132351415143145
0.14161427326490533
0.25492123650866755
0.2612566135933589
0.409555567761878
0.7704784335320881
0.648650761957305
0.25512757429455984
0.46952293771550424
0.26390228585301584
0.5447071588725821
0.26553790174559155
0.6099358970740939
0.36955966859967965
0.6771699742493525
0.4734123437353367
0.7562229946103383
0.7781228643372432
0.6757152244060081
0.49775490147468326
0.8099012535770926
0.8019718422957227
0.6747144348799522
0.49465066885589254
0.7940440242317405
0.8303852163884055
0.6525066184921088
0.35909191828675274
0.5378784056831715
0.3311143949628713
0.5851438099581863
0.319883177353772
0.6491408786884495
0.3098260483892442
0.7034659917019164
0.403321889261105
0.7443894258314955
0.8016740391012442
0.6749223216199167
0.49781947733479137
0.7986162774416482
0.8498414139698155
0.6668016635395588
0.41987267827923563
0.781077922692299
0.4481622577611166
0.6453676981317776
0.393389715396026
0.6792733573144514
0.3652032853064928
0.728618308932232
0.3422844612649078
0.7663455091034779
0.8494841904861874
0.6659210235123538
0.4216510990682883
0.7889294476556372
0.3614695166108451
0.7996580537250494
0.5215440618974131
0.7269196081847846
0.4421203196766168
0.746213768816527
0.395794449530866
0.7781389257817479
0.36756569137873285
0.8010649362845267
0.4126036246799047
0.7943296546114382
0.5756359927231512
0.7818775468224073
0.47400995717347305
0.783479827976167
0.4131142408455125
0.7835810153441739
0.4873252329996067
0.7900455776385582
0.6056429126486814
0.8066496143131473
0.48214640394131414
0.7645313332423407
0.6142782315337681
0.8006140292243834
0.6003612517088328
0.7625443925197012
-0.6559192809276221
-0.46944694278049653
-0.6732570516177945
-0.5368134320205232
-0.7565150525840264
-0.5538978257881466
-0.7606973424862035
-0.6141334501841146
-0.8787974377715891
-0.6563398475125862
-0.8476231771155439
-0.699871214151454
-0.6866552778093061
-0.5797357709974735
-0.7584136213238483
-0.6481820040000261
-0.9410962629352221
-0.764957079492019
-0.9129460931724306
-0.7803979274001112
-0.8250030173879025
-0.7175717796599058
-0.7037321543498913
-0.6078180222809035
-0.7649986972175156
-0.6677122069225893
-0.9887760348181037
-0.8541620944881857
-0.9356539997478662
-0.833922726439354
-0.8703331994147742
-0.7742285574195114
-0.8105110006637555
-0.722214490782552
-0.7153293082388704
-0.6280081185986424
-0.7607566277177088
-0.6784824690506377
-0.9862006413020181
-0.9043726583930106
-0.8959938952697766
-0.839479672641081
-0.8745191527647352
-0.8001589972506828
-0.8350495089692743
-0.7595458361986768
-0.7997323237531511
-0.7205570287367654
-0.7186669418564415
-0.7602335403169764
-0.641712675798665
-0.6845671717190075
-0.3780393961768907
-0.5187123235882561
-0.43079810263525975
-0.5842987151483846
-0.25251199499778115
-0.4381149834880257
-0.33370141448815693
-0.4878996958740155
-0.9148890525833105
-0.8797727379726523
-0.8237883337591692
-0.7948803365496967
-0.8272422361497818
-0.7805911033797521
-0.822236105636926
-0.7639065991767207
-0.8095355618016401
-0.7418141389577035
-0.7824457637439349
-0.7154326707432551
-0.08943849794630342
-0.32551249842761626
-0.36124591016107094
-0.39910190050046296
-0.7190674438643815
-0.7555098198320368
-0.6513625632231246
-0.6874298626593857
-0.45674271577661885
-0.6799116616444605
-0.37886441390496683
-0.6179291757727078
-0.8155480027535403
-0.8141647547816041
-0.710678432099815
-0.7112023009559798
-0.7357035814834746
-0.7164479206026819
-0.7629662410889163
-0.7263242473436622
-0.7771851142590809
-0.7297755473245807
-0.7803109889501175
-0.7232899397397524
0.09945136021115059
-0.17153871882010185
-0.14371851929937515
-0.2566853253740698
-0.7700136137173664
-0.708410267147681
-0.27425890305415046
-0.5342596369706157
-0.7239602530662906
-0.7525640847072264
-0.6585131023320159
-0.6880369664637359
-0.4698092845784673
-0.4051951169648235
-0.6873817300930946
-0.6589241993836662
-0.6209048885040512
-0.6231917878565264
-0.6643812958981884
-0.6501464964973022
-0.7090951843936447
-0.6782690074234732
-0.7406249299687631
-0.697917389357743
0.28907771646736297
0.00212170159288215
-0.13270150724356963
-0.1538275833068448
-0.7578905793701374
-0.7048994478702025
-0.1426038085726543
-0.32239960784559124
-0.759359205306872
-0.7001542541203623
-0.31566875789797855
-0.5728415947196654
-0.7278091587811389
-0.748226738578624
-0.6641077923407657
-0.687368392643305
-0.47841919423617413
-0.4241228911881256
-0.7068746375562771
-0.6661196175273835
-0.5459899623129241
-0.5487276644524881
-0.6055816753815869
-0.5932753187378262
-0.6627797594651108
-0.6359318643711894
0.446559842879571
-0.10573253231100105
0.17345226514288006
0.0339379677083047
-0.7093856639948337
-0.6686487023224238
0.0024471223282007642
-0.2036190704645524
-0.7369039844667411
-0.6868988805356584
-0.2008506524868388
-0.44280449386398135
-0.74572119130283
-0.6914660275937466
-0.34557477503628514
-0.5966404569415772
-0.7286976375376478
-0.7449585656962756
-0.6683506837864662
-0.6854617687436012
-0.48446003176440117
-0.4381441883250845
-0.7346639735878331
-0.6995222959337506
-0.7315055251618857
-0.7403784127207845
-0.6715984296976576
-0.6824876136706932
-0.4825912385996745
-0.4874014763870892
-0.5545832584893953
-0.5440654730914034
0.5568606995739501
0.3776263025838961
0.1902161577305785
0.16832538948498688
-0.6250374797490482
-0.5981576622400103
0.13781124737024375
-0.0748616278316004
-0.6796928530245787
-0.6415159257550915
-0.07240762073438714
-0.31201033240343584
-0.7172128814207771
-0.6694356880029404
-0.2427856080560537
-0.5071740173465275
-0.7353581608788663
-0.6819976854715885
-0.36864005745826856
-0.6339713040753586
-0.4895918284380213
-0.44861631752682135
-0.7570776592677387
-0.7227018497000534
-0.735752229205752
-0.7375715837019411
-0.6737612959181308
-0.6789403251212549
-0.7253502037182811
-0.6719983710388824
-0.4311607117014465
-0.4343163074106347
0.6189106365939973
0.3128656233205411
0.4547373009400431
0.3013629989646249
-0.5117909527103407
-0.5008077018145781
0.25396524263551506
0.013167157652477553
-0.5902254407426434
-0.5642519033634164
0.055596699662459004
-0.1813936598419668
-0.6527223317319607
-0.6160320065639024
-0.12520438348388016
-0.3702531792662103
-0.698038619287673
-0.6520673383370511
-0.2757370987726803
-0.5325703144462605
-0.3863903776199944
-0.6651361520969364
-0.4929311714386205
-0.45720851792458156
-0.7745974218023504
-0.7472633084231085
-0.7418590931124509
-0.7373710091471679
-0.6752600148464387
-0.6747715500580483
-0.7151212890684696
-0.6618171955236329
-0.680459305369338
-0.6350431657038789
-0.3858976613229527
-0.387974206661192
0.3413634804318444
0.0987302384988375
-0.4740719676077311
-0.46229217686843044
0.16944492235878825
-0.059107620291005476
-0.5576187001323508
-0.5326644152679165
-0.005694169320887469
-0.2275147518970588
-0.6278866729696652
-0.5918625533925821
-0.1661667343164226
-0.42062793139368887
-0.30174512505279577
-0.5724335637398248
-0.401155306521514
-0.6920021633598243
-0.4945411792853678
-0.4633685271590776
-0.7919883399752694
-0.7664536913026632
-0.7496423534410461
-0.7389221043394817
-0.6759701511892436
-0.669579947818122
-0.7079343772507113
-0.6511127407149756
-0.6640127578465728
-0.6182031459126295
-0.6053323950512719
-0.5687999904921409
-0.3468716111450878
-0.34714406901787687
0.26238469267896636
0.06631577111475945
-0.4398418494295843
-0.42680085424404934
0.10691319601190587
-0.08529259706831274
-0.5290959407866235
-0.503178238571492
-0.05140163024452776
-0.2846320994563511
-0.20026480920934459
-0.45222493534470576
-0.32439136499895427
-0.6039954692873435
-0.4131890970103868
-0.7139967318867483
-0.4951649613313453
-0.46898909988302484
-0.805670709622742
-0.7819648969075959
-0.7633116098794182
-0.7455986100308268
-0.6761771952635073
-0.6640568286246729
-0.7025461579383503
-0.639599434432458
-0.6503040217634446
-0.60110743097367
-0.5833554959846728
-0.546321764347414
-0.5016273792032767
-0.47587284966982374
-0.49737898310963297
-0.4763459401726298
-0.8160716814996932
-0.7928965694263304
-0.31053813442435985
-0.309218280846198
0.20108661699233568
0.04367008261777053
-0.4077803456038537
-0.39425892781248645
0.05705396460996566
-0.14348409128266157
-0.08946502069092555
-0.31029622427704134
-0.22856777413286072
-0.4871877900808573
-0.341119344748959
-0.6262304215712214
-0.4244290856512313
-0.7289523495131083
-0.7783266095587582
-0.754490651883626
-0.6760194821159304
-0.6577838488155495
-0.7013166628487467
-0.6279446635915324
-0.6377331997751253
-0.5837092666080924
-0.5633673432267887
-0.5240472512997837
-0.4755316028097346
-0.4494240384984672
-0.4984253634724323
-0.4796555747395497
-0.8103799079714448
-0.7898495825734098
-0.3782081589033174
-0.36373188693720787
-0.43460246527769836
-0.7404432229750753
-0.27691876228754175
-0.2745473877643865
0.151930821632944
-0.007034494592816764
0.016030019189853292
-0.16438597377819145
-0.12333437671064824
-0.3451581483807406
-0.2526802434195213
-0.5101802446295278
-0.3572919217111955
-0.6428861658268518
-0.8004101896337285
-0.7693801250211398
-0.6747885768584498
-0.6503491837026032
-0.7032913788206726
-0.6151133993976025
-0.6294745777246743
-0.566159297794178
-0.5455654838210431
-0.5021401982565813
-0.4515587935558169
-0.42353006125415166
-0.49764139301000554
-0.48373791595208
-0.7987194060316957
-0.7785752354957395
-0.34940408852457466
-0.3349183849691549
-0.4431806426476503
-0.7390188339273565
-0.2456410410667902
-0.24216534385764085
-0.37318696316105654
-0.6566379184465889
0.11147639033506004
-0.030999518751495266
-0.018616537892948447
-0.20020417508601215
-0.15330982081264993
-0.3705732090923797
-0.2736500891056485
-0.5276892512861395
-0.8450891034839146
-0.7984135398986362
-0.6755864403715878
-0.6420927401333981
-0.7093035578004888
-0.6011941757009843
-0.6243132807719483
-0.5478192133154877
-0.5310531877738556
-0.47996661346703173
-0.4293412671075605
-0.39847176919128857
-0.4257768171231687
-0.4237308598076564
-0.7893270485595199
-0.7698071624634286
-0.32276379888418755
-0.3066960228520384
-0.4513192035305644
-0.72844790656211
-0.21502524871467735
-0.21164077382167876
-0.3870175185556406
-0.6572860584550587
-0.29401457563631234
-0.5399138653507847
0.0763868256290265
-0.060230730158188646
-0.05098119413411284
-0.22391896580978846
-0.1793059949996549
-0.3897470188750394
-0.7216530178887669
-0.5866394306550449
-0.621791232339366
-0.5283064482020308
-0.5189372258661725
-0.4571112633327435
-0.4102693817174332
-0.3730859518763002
-0.3671087199330297
-0.3533274465490853
-0.8013265442785114
-0.7762915492855395
-0.2973309435545988
-0.2795275379683091
-0.40314848856478586
-0.7200401879674
-0.18542646228368856
-0.1814349297179368
-0.39949781972531045
-0.6464886239493174
-0.31322092109687355
-0.5412147622389526
-0.20268933961522287
-0.40140184447350297
0.044910366580358504
-0.07838414672194695
-0.08027464552339349
-0.24258303131295667
-0.6192782287459405
-0.5036486725485736
-0.5098611357292683
-0.4335325888085034
-0.39259003827595806
-0.3473813436701375
-0.4142356668420075
-0.3961887042942101
-0.7819592231363978
-0.7434685604249927
-0.2741050167885574
-0.2521668787789976
-0.3272395540592937
-0.7210624182997699
-0.15720008602650956
-0.15286053685815992
-0.3615603759090145
-0.6411590044411889
-0.3303045077261094
-0.5377074165427881
-0.22595238359649733
-0.4041384832603971
-0.10669155163841486
-0.2532818229314993
0.0152232019411802
-0.09254385081400864
-0.49544314356190344
-0.4004519657293858
-0.37600183208950616
-0.3211803596783302
-0.482716523962593
-0.45632862013393194
-0.7667788088975722
-0.7156063158529865
-0.2516976883303684
-0.22468360050202155
-0.364403855032031
-0.6747110543684844
-0.13025938365142486
-0.12420467394959218
-0.28891186274754643
-0.6361327042185879
-0.30240509216988776
-0.5349359900115856
-0.2474513931920848
-0.4045712391232582
-0.13190977064228035
-0.25591925120037656
-0.01207360199039369
-0.1002847336058842
-0.3468245291244539
-0.28755593232118565
-0.5992004378659161
-0.5601101870354468
-0.7606915526857982
-0.692942186792878
-0.22817577189326171
-0.19662217747863403
-0.4139092221464826
-0.6368555772888137